 *******************************************************************************
 *                                                                             *
 *                                  CRYSTAL26                                  *
 *                      develop : 0.0.1 - November 2024                        *
 *                        HTTP://WWW.CRYSTAL.UNITO.IT                          *
 *                                                                             *
 *                                MAIN AUTHORS                                 *
 *                                                                             *
 *  R. DOVESI(1,11), V.R. SAUNDERS(2), C. ROETTI(1,11), R. ORLANDO(1,11),      *
 *  C.M. ZICOVICH-WILSON(1,3), F. PASCALE(4), B. CIVALLERI(1,11),              *
 *  K. DOLL(5), N.M. HARRISON(6), I.J. BUSH(7), Ph. D'ARCO(8),                 *
 *  M. LLUNELL(9), M. CAUSA'(10), Y. NOEL(8), L. MASCHIO(1,11), A. ERBA(1,11)  *
 *  M. RE'RAT(14), S. CASASSA(1,11), B.G. SEARLE(2), J.K. DESMARAIS(1)         *
 *                                                                             *
 *        CONTRIBUTIONS TO THE CODE HAVE ALSO BEEN GIVEN BY                    *
 *                                                                             *
 *  M. FERRABONE(1,11), M. DE LA PIERRE(1,11), M. FERRERO(1,11),               *
 *  J. BAIMA(1,11), E. ALBANESE(1,11), M.F. PEINTINGER(12), R. BAST(13),       *
 *  B. KIRTMAN(15), V. LACIVITA(1,11), R. DEMICHELIS(1,16)                     *
 *  G. BRANDEBURG(17), S. SALUSTRO(1,11), G. SANSONE(1,11)                     *
 *  M.T. RUGGIERO(18), L.E. DAGA(1), L. DONA'(1), A. COSSARD(1)                *
 *                                                                             *
 * (1) THEORETICAL CHEMISTRY GROUP - UNIVERSITA' DI TORINO - TORINO (ITALY)    *
 * (2) SCIENTIFIC COMPUTING DEPARTMENT - STFC DARESBURY (UK)                   *
 * (3) UNIVERSIDAD AUTONOMA DEL ESTADO DE MORELOS - CUERNAVACA (MEXICO)        *
 * (4) UNIVERSITE' DE LORRAINE - NANCY (FRANCE)                                *
 * (5) UNIVERSITAET STUTTGART- STUTTGART (GERMANY)                             *
 * (6) IMPERIAL COLLEGE - LONDON (UK)                                          *
 * (7) SCIENTIFIC COMPUTING DEPARTMENT - STFC RAL (UK)                         *
 * (8) UPMC - SORBONNE UNIVERSITES - PARIS (FRANCE)                            *
 * (9) UNIVERSIDAD DE BARCELONA - BARCELONA (SPAIN)                            *
 *(10) UNIVERSITA' DI NAPOLI "FEDERICO II" - NAPOLI (ITALY)                    *
 *(11) NIS - NANOSTRUCTURED INTERFACES AND SURFACES - TORINO (ITALY)           *
 *(12) MPI FUER CHEMISCHE ENERGIEKONVERSION - MUELHEIM AN DER RUHR (GERMANY)   *
 *(13) UNIVERSITY OF TROMSO - TROMSO (NORWAY)                                  *
 *(14) UNIVERSITE' DE PAU ET DES PAYS DE L'ADOUR - PAU (FRANCE)                *
 *(15) UNIVERSITY OF CALIFORNIA SANTA BARBARA - SANTA BARBARA (USA)            *
 *(16) CURTIN UNIVERSITY - PERTH (AUSTRALIA)                                   *
 *(17) UNIVERSITY COLLEGE LONDON - LONDON (UK)                                 *
 *(18) UNIVERSITY OF VERMONT - BURLINGTON (USA)                                *
 *                                                                             *
 *******************************************************************************
 EEEEEEEEEE STARTING  DATE 25 01 2026 TIME 22:40:42.4
 Si                                                                              

 CRYSTAL CALCULATION
 (INPUT ACCORDING TO THE INTERNATIONAL TABLES FOR X-RAY CRYSTALLOGRAPHY)
 CRYSTAL FAMILY                       :  CUBIC       
 CRYSTAL CLASS  (GROTH - 1921)        :  CUBIC HEXAKISOCTAHEDRAL              

 SPACE GROUP (CENTROSYMMETRIC)        :  F D 3 M         

 LATTICE PARAMETERS  (ANGSTROMS AND DEGREES) - CONVENTIONAL CELL
        A           B           C        ALPHA        BETA       GAMMA
     5.42000     5.42000     5.42000    90.00000    90.00000    90.00000


 NUMBER OF IRREDUCIBLE ATOMS IN THE CONVENTIONAL CELL:    1

 INPUT COORDINATES

 ATOM AT. N.              COORDINATES
   1  14     1.250000000000E-01  1.250000000000E-01  1.250000000000E-01

 *******************************************************************************

 << INFORMATION >>: FROM NOW ON, ALL COORDINATES REFER TO THE PRIMITIVE CELL

 *******************************************************************************

 LATTICE PARAMETERS  (ANGSTROMS AND DEGREES) - PRIMITIVE CELL
       A          B          C        ALPHA      BETA     GAMMA        VOLUME
    3.83252    3.83252    3.83252    60.00000  60.00000  60.00000     39.805022

 COORDINATES OF THE EQUIVALENT ATOMS (FRACTIONAL UNITS)

 N. ATOM EQUIV AT. N.          X                  Y                  Z

   1   1   1   14 SI    1.25000000000E-01  1.25000000000E-01  1.25000000000E-01
   2   1   2   14 SI   -1.25000000000E-01 -1.25000000000E-01 -1.25000000000E-01

 NUMBER OF SYMMETRY OPERATORS         :   48
 *******************************************************************************
 * GEOMETRY EDITING - INPUT COORDINATES ARE GIVEN IN ANGSTROM         
 *******************************************************************************

 GEOMETRY NOW FULLY CONSISTENT WITH THE GROUP

 GCALCO - MAX INDICES DIRECT LATTICE VECTOR    14    14    14
 NO.OF VECTORS CREATED 6999 STARS  105 RMAX    76.64647 BOHR

 GEOMETRY FOR WAVE FUNCTION - DIMENSIONALITY OF THE SYSTEM    3
 (NON PERIODIC DIRECTION: LATTICE PARAMETER FORMALLY SET TO 500)
 *******************************************************************************
 LATTICE PARAMETERS (ANGSTROMS AND DEGREES) - BOHR = 0.5291772083 ANGSTROM
 PRIMITIVE CELL - CENTRING CODE 5/0 VOLUME=    39.805022 - DENSITY  2.334 g/cm^3
         A              B              C           ALPHA      BETA       GAMMA 
     3.83251875     3.83251875     3.83251875    60.000000  60.000000  60.000000
 *******************************************************************************
 ATOMS IN THE ASYMMETRIC UNIT    1 - ATOMS IN THE UNIT CELL:    2
     ATOM                 X/A                 Y/B                 Z/C    
 *******************************************************************************
      1 T  14 SI    1.250000000000E-01  1.250000000000E-01  1.250000000000E-01
      2 F  14 SI   -1.250000000000E-01 -1.250000000000E-01 -1.250000000000E-01

 TRANSFORMATION MATRIX PRIMITIVE-CRYSTALLOGRAPHIC CELL
 -1.0000  1.0000  1.0000  1.0000 -1.0000  1.0000  1.0000  1.0000 -1.0000

 *******************************************************************************
 CRYSTALLOGRAPHIC CELL (VOLUME=        159.22008800)
         A              B              C           ALPHA      BETA       GAMMA 
     5.42000000     5.42000000     5.42000000    90.000000  90.000000  90.000000

 COORDINATES IN THE CRYSTALLOGRAPHIC CELL
     ATOM                 X/A                 Y/B                 Z/C    
 *******************************************************************************
      1 T  14 SI    1.250000000000E-01  1.250000000000E-01  1.250000000000E-01
      2 F  14 SI   -1.250000000000E-01 -1.250000000000E-01 -1.250000000000E-01

 T = ATOM BELONGING TO THE ASYMMETRIC UNIT

 ****   48 SYMMOPS - TRANSLATORS IN FRACTIONAL UNITS
 **** MATRICES AND TRANSLATORS IN THE CRYSTALLOGRAPHIC REFERENCE FRAME
   V INV                    ROTATION MATRICES                   TRANSLATORS
   1   1  1.00  0.00  0.00  0.00  1.00  0.00  0.00  0.00  1.00  0.00  0.00  0.00
   2   2 -0.00  1.00  0.00  1.00 -0.00 -0.00 -1.00 -1.00 -1.00  0.00  0.00  0.50
   3   3 -1.00 -1.00 -1.00  0.00  0.00  1.00 -0.00  1.00  0.00  0.50 -0.00  0.00
   4   4  0.00  0.00  1.00 -1.00 -1.00 -1.00  1.00 -0.00 -0.00  0.00  0.50  0.00
   5   6 -0.00  0.00  1.00  1.00 -0.00 -0.00  0.00  1.00  0.00  0.00  0.00  0.00
   6   5 -0.00  1.00  0.00  0.00  0.00  1.00  1.00 -0.00 -0.00  0.00  0.00  0.00
   7   8  1.00 -0.00 -0.00 -0.00  0.00  1.00 -1.00 -1.00 -1.00  0.00  0.00  0.50
   8   7  1.00 -0.00 -0.00 -1.00 -1.00 -1.00 -0.00  1.00  0.00  0.00  0.50  0.00
   9  10 -1.00 -1.00 -1.00  0.00  1.00  0.00  1.00 -0.00 -0.00  0.50 -0.00  0.00
  10   9  0.00  0.00  1.00 -0.00  1.00  0.00 -1.00 -1.00 -1.00  0.00  0.00  0.50
  11  12  0.00  1.00  0.00 -1.00 -1.00 -1.00 -0.00  0.00  1.00  0.00  0.50  0.00
  12  11 -1.00 -1.00 -1.00  1.00 -0.00 -0.00  0.00  0.00  1.00  0.50 -0.00  0.00
  13  13  0.00 -1.00 -0.00 -1.00  0.00  0.00 -0.00 -0.00 -1.00  0.00  0.00  0.00
  14  14 -1.00  0.00  0.00  0.00 -1.00 -0.00  1.00  1.00  1.00  0.00  0.00  0.50
  15  16 -0.00 -0.00 -1.00  1.00  1.00  1.00  0.00 -1.00 -0.00  0.00  0.50  0.00
  16  15  1.00  1.00  1.00 -0.00 -0.00 -1.00 -1.00  0.00  0.00  0.50 -0.00  0.00
  17  17 -1.00  0.00  0.00  0.00 -0.00 -1.00 -0.00 -1.00 -0.00  0.00  0.00  0.00
  18  18  0.00 -0.00 -1.00 -0.00 -1.00 -0.00 -1.00  0.00  0.00  0.00  0.00  0.00
  19  21  0.00 -0.00 -1.00 -1.00  0.00  0.00  1.00  1.00  1.00  0.00  0.00  0.50
  20  22  1.00  1.00  1.00 -1.00  0.00  0.00 -0.00 -1.00 -0.00  0.50 -0.00  0.00
  21  19 -0.00 -1.00 -0.00  1.00  1.00  1.00 -1.00  0.00  0.00  0.00  0.50  0.00
  22  20 -0.00 -1.00 -0.00  0.00 -0.00 -1.00  1.00  1.00  1.00  0.00  0.00  0.50
  23  23  1.00  1.00  1.00 -0.00 -1.00 -0.00  0.00 -0.00 -1.00  0.50 -0.00  0.00
  24  24 -1.00  0.00  0.00  1.00  1.00  1.00  0.00 -0.00 -1.00  0.00  0.50  0.00
  25  25 -1.00  0.00  0.00  0.00 -1.00 -0.00 -0.00 -0.00 -1.00  0.00  0.00  0.00
  26  26  0.00 -1.00 -0.00 -1.00  0.00  0.00  1.00  1.00  1.00  0.00  0.00  0.50
  27  27  1.00  1.00  1.00 -0.00 -0.00 -1.00  0.00 -1.00 -0.00  0.50 -0.00  0.00
  28  28 -0.00 -0.00 -1.00  1.00  1.00  1.00 -1.00  0.00  0.00  0.00  0.50  0.00
  29  30  0.00 -0.00 -1.00 -1.00  0.00  0.00 -0.00 -1.00 -0.00  0.00  0.00  0.00
  30  29  0.00 -1.00 -0.00 -0.00 -0.00 -1.00 -1.00  0.00  0.00  0.00  0.00  0.00
  31  32 -1.00  0.00  0.00  0.00 -0.00 -1.00  1.00  1.00  1.00  0.00  0.00  0.50
  32  31 -1.00  0.00  0.00  1.00  1.00  1.00  0.00 -1.00 -0.00  0.00  0.50  0.00
  33  34  1.00  1.00  1.00 -0.00 -1.00 -0.00 -1.00  0.00  0.00  0.50 -0.00  0.00
  34  33 -0.00 -0.00 -1.00  0.00 -1.00 -0.00  1.00  1.00  1.00  0.00  0.00  0.50
  35  36 -0.00 -1.00 -0.00  1.00  1.00  1.00  0.00 -0.00 -1.00  0.00  0.50  0.00
  36  35  1.00  1.00  1.00 -1.00  0.00  0.00 -0.00 -0.00 -1.00  0.50 -0.00  0.00
  37  37 -0.00  1.00  0.00  1.00 -0.00 -0.00  0.00  0.00  1.00  0.00  0.00  0.00
  38  38  1.00 -0.00 -0.00 -0.00  1.00  0.00 -1.00 -1.00 -1.00  0.00  0.00  0.50
  39  40  0.00  0.00  1.00 -1.00 -1.00 -1.00 -0.00  1.00  0.00  0.00  0.50  0.00
  40  39 -1.00 -1.00 -1.00  0.00  0.00  1.00  1.00 -0.00 -0.00  0.50 -0.00  0.00
  41  41  1.00 -0.00 -0.00 -0.00  0.00  1.00  0.00  1.00  0.00  0.00  0.00  0.00
  42  42 -0.00  0.00  1.00  0.00  1.00  0.00  1.00 -0.00 -0.00  0.00  0.00  0.00
  43  45 -0.00  0.00  1.00  1.00 -0.00 -0.00 -1.00 -1.00 -1.00  0.00  0.00  0.50
  44  46 -1.00 -1.00 -1.00  1.00 -0.00 -0.00  0.00  1.00  0.00  0.50 -0.00  0.00
  45  43  0.00  1.00  0.00 -1.00 -1.00 -1.00  1.00 -0.00 -0.00  0.00  0.50  0.00
  46  44  0.00  1.00  0.00 -0.00  0.00  1.00 -1.00 -1.00 -1.00  0.00  0.00  0.50
  47  47 -1.00 -1.00 -1.00  0.00  1.00  0.00 -0.00  0.00  1.00  0.50 -0.00  0.00
  48  48  1.00 -0.00 -0.00 -1.00 -1.00 -1.00 -0.00  0.00  1.00  0.00  0.50  0.00

 DIRECT LATTICE VECTORS CARTESIAN COMPONENTS (ANGSTROM)
          X                    Y                    Z
   0.000000000000E+00   0.271000000000E+01   0.271000000000E+01
   0.271000000000E+01   0.000000000000E+00   0.271000000000E+01
   0.271000000000E+01   0.271000000000E+01   0.000000000000E+00


 CARTESIAN COORDINATES - PRIMITIVE CELL
 *******************************************************************************
 *      ATOM          X(ANGSTROM)         Y(ANGSTROM)         Z(ANGSTROM)
 *******************************************************************************
    1    14 SI    6.775000000000E-01  6.775000000000E-01  6.775000000000E-01
    2    14 SI   -6.775000000000E-01 -6.775000000000E-01 -6.775000000000E-01

 *******************************************************************************
 LOCAL ATOMIC FUNCTIONS BASIS SET
 *******************************************************************************
   ATOM   X(AU)   Y(AU)   Z(AU)  N. TYPE  EXPONENT  S COEF   P COEF   D/F/G COEF
 *******************************************************************************
   1 SI   1.280   1.280   1.280
                                  1 S  
                                         4.477E+04 5.591E-04 0.000E+00 0.000E+00
                                         6.717E+03 4.321E-03 0.000E+00 0.000E+00
                                         1.529E+03 2.219E-02 0.000E+00 0.000E+00
                                         4.325E+02 8.649E-02 0.000E+00 0.000E+00
                                         1.406E+02 2.494E-01 0.000E+00 0.000E+00
                                         4.986E+01 4.602E-01 0.000E+00 0.000E+00
                                         1.843E+01 3.425E-01 0.000E+00 0.000E+00
                                  2 S  
                                         8.653E+01 2.130E-02 0.000E+00 0.000E+00
                                         2.662E+01 9.468E-02 0.000E+00 0.000E+00
                                         4.495E+00-3.262E-01 0.000E+00 0.000E+00
                                  3 S  
                                         2.104E+00 1.398E+00 0.000E+00 0.000E+00
                                         1.311E+00 6.387E-01 0.000E+00 0.000E+00
                                  4 S  
                                         5.422E-01 1.000E+00 0.000E+00 0.000E+00
                                  5 S  
                                         1.461E-01 1.000E+00 0.000E+00 0.000E+00
                           6-     8 P  
                                         3.945E+02 0.000E+00 2.629E-03 0.000E+00
                                         9.314E+01 0.000E+00 2.056E-02 0.000E+00
                                         2.952E+01 0.000E+00 9.207E-02 0.000E+00
                                         1.078E+01 0.000E+00 2.557E-01 0.000E+00
                                         4.163E+00 0.000E+00 4.211E-01 0.000E+00
                           9-    11 P  
                                         1.450E+00 0.000E+00 1.000E+00 0.000E+00
                          12-    14 P  
                                         4.949E-01 0.000E+00 1.000E+00 0.000E+00
                          15-    17 P  
                                         1.347E-01 0.000E+00 1.000E+00 0.000E+00
                          18-    22 D  
                                         3.074E-01 0.000E+00 0.000E+00 1.000E+00
   2 SI  -1.280  -1.280  -1.280
 INFORMATION **** READM2 **** NEW DEFAULT: FOCK/KS MATRIX MIXING SET TO 30 %
 INFORMATION **** READM2 **** NEW DEFAULT: FULL DIRECT SCF MODE
 INFORMATION **** READM2 **** NEW DEFAULT: COULOMB BIPOLAR BUFFER SET TO 32 Mb
 INFORMATION **** READM2 **** NEW DEFAULT: EXCHANGE BIPOLAR BUFFER SET TO 32 Mb

 *******************************************************************************
 NEW DEFAULT: DFT INTEGRATION GRID INCREASED TO XLGRID
 NEW DEFAULT: DIIS ACCELERATOR ACTIVE
 USE KEYWORD NODIIS TO TURN IT OFF
 *******************************************************************************

 INFORMATION **** TOLINTEG **** COULOMB AND EXCHANGE SERIES TOLERANCES MODIFIED
 *******************************************************************************
 N. OF ATOMS PER CELL         2  COULOMB OVERLAP TOL         (T1) 10**   -9
 NUMBER OF SHELLS            20  COULOMB PENETRATION TOL     (T2) 10**   -9
 NUMBER OF AO                44  EXCHANGE OVERLAP TOL        (T3) 10**   -9
 N. OF ELECTRONS PER CELL    28  EXCHANGE PSEUDO OVP (F(G))  (T4) 10**  -15
 CORE ELECTRONS PER CELL     20  EXCHANGE PSEUDO OVP (P(G))  (T5) 10**  -30
 N. OF SYMMETRY OPERATORS    48  POLE ORDER IN MONO ZONE                  4
 *******************************************************************************
 TYPE OF CALCULATION :  RESTRICTED CLOSED SHELL
 KOHN-SHAM HAMILTONIAN

 (EXCHANGE)[CORRELATION] FUNCTIONAL:(PERDEW-BURKE-ERNZERHOF)[PERDEW-BURKE-ERNZERHOF]


 HYBRID EXCHANGE - PERCENTAGE OF FOCK EXCHANGE     8.4000

 CAPPA:IS1  8;IS2  8;IS3  8; K PTS MONK NET  29; SYMMOPS:K SPACE  48;G SPACE  48

 *******************************************************************************
 MAX NUMBER OF SCF CYCLES      50  CONVERGENCE ON DELTAP        10**-16
 WEIGHT OF F(I) IN F(I+1)      30% CONVERGENCE ON ENERGY        10**- 6
 SHRINK. FACT.(MONKH.)    8  8  8  NUMBER OF K POINTS IN THE IBZ     29
 SHRINKING FACTOR(GILAT NET)    8  NUMBER OF K POINTS(GILAT NET)     29
 *******************************************************************************
 *** K POINTS COORDINATES (OBLIQUE COORDINATES IN UNITS OF IS =  8)
   1-R(  0  0  0)   2-C(  1  0  0)   3-C(  2  0  0)   4-C(  3  0  0)
   5-R(  4  0  0)   6-C(  1  1  0)   7-C(  2  1  0)   8-C(  3  1  0)
   9-C(  4  1  0)  10-C(  5  1  0)  11-C(  6  1  0)  12-C(  7  1  0)
  13-C(  2  2  0)  14-C(  3  2  0)  15-C(  4  2  0)  16-C(  5  2  0)
  17-C(  6  2  0)  18-C(  3  3  0)  19-C(  4  3  0)  20-C(  5  3  0)
  21-R(  4  4  0)  22-C(  3  2  1)  23-C(  4  2  1)  24-C(  5  2  1)
  25-C(  4  3  1)  26-C(  5  3  1)  27-C(  6  3  1)  28-C(  5  4  1)
  29-C(  6  4  2)

 DIRECT LATTICE VECTORS COMPON. (A.U.)     RECIP. LATTICE VECTORS COMPON. (A.U.) 
        X            Y            Z              X            Y            Z
    0.0000000    5.1211578    5.1211578     -0.6134536    0.6134536    0.6134536
    5.1211578    0.0000000    5.1211578      0.6134536   -0.6134536    0.6134536
    5.1211578    5.1211578    0.0000000      0.6134536    0.6134536   -0.6134536

 DISK SPACE FOR EIGENVECTORS (FTN 10)      106480 REALS

 SYMMETRY ADAPTION OF THE BLOCH FUNCTIONS ENABLED
 TTTTTTTTTTTTTTTTTTTTTTTTTTTTTT gordsh1     TELAPSE        0.18 TCPU        0.18

 MATRIX SIZE: P(G)  237676, F(G)   42898, P(G) IRR    5553, F(G) IRR    2465
 MAX G-VECTOR INDEX FOR 1- AND 2-ELECTRON INTEGRALS 755

 TTTTTTTTTTTTTTTTTTTTTTTTTTTTTT INPUT       TELAPSE        0.18 TCPU        0.18

 NEIGHBORS OF THE NON-EQUIVALENT ATOMS

 N = NUMBER OF NEIGHBORS AT DISTANCE R
    ATOM  N     R/ANG      R/AU   NEIGHBORS (ATOM LABELS AND CELL INDICES)
   1 SI   4     2.3469     4.4351    2 SI   0 0 0    2 SI   1 0 0    2 SI   0 1 0
                                     2 SI   0 0 1
   1 SI  12     3.8325     7.2424    1 SI  -1 0 0    1 SI   1 0 0    1 SI  -1 0 1
                                     1 SI   1 0-1    1 SI  -1 1 0    1 SI   1-1 0
                                     1 SI   0-1 0    1 SI   0 1 0    1 SI   0-1 1
                                     1 SI   0 1-1    1 SI   0 0-1    1 SI   0 0 1
   1 SI  12     4.4940     8.4925    2 SI   1 0-1    2 SI  -1 0 1    2 SI   1-1 0
                                     2 SI  -1 1 0    2 SI   0 1-1    2 SI   0-1 1
                                     2 SI   1 1-1    2 SI   1-1 1    2 SI  -1 1 1
                                     2 SI   1 1 0    2 SI   1 0 1    2 SI   0 1 1
   1 SI   6     5.4200    10.2423    1 SI  -1-1 1    1 SI   1 1-1    1 SI  -1 1-1
                                     1 SI   1-1 1    1 SI  -1 1 1    1 SI   1-1-1
   1 SI  12     5.9063    11.1613    2 SI  -1 0 0    2 SI   0-1 0    2 SI   0 0-1
                                     2 SI   2 0-1    2 SI   2-1 0    2 SI  -1 0 2
                                     2 SI  -1 2 0    2 SI   0 2-1    2 SI   0-1 2
                                     2 SI   2 0 0    2 SI   0 2 0    2 SI   0 0 2
   1 SI  24     6.6381    12.5442    1 SI  -2 0 1    1 SI   2 0-1    1 SI  -2 1 0
                                     1 SI   2-1 0    1 SI  -2 1 1    1 SI   2-1-1
                                     1 SI  -1-1 0    1 SI   1 1 0    1 SI  -1-1 2
                                     1 SI   1 1-2    1 SI  -1 0-1    1 SI   1 0 1
                                     1 SI  -1 0 2    1 SI   1 0-2    1 SI  -1 2-1
                                     1 SI   1-2 1    1 SI  -1 2 0    1 SI   1-2 0
                                     1 SI   0-2 1    1 SI   0 2-1    1 SI   0-1-1
                                     1 SI   0 1 1    1 SI   0-1 2    1 SI   0 1-2


 THERE ARE NO SYMMETRY ALLOWED DIRECTIONS
 TTTTTTTTTTTTTTTTTTTTTTTTTTTTTT SYMM        TELAPSE        0.18 TCPU        0.18
 TTTTTTTTTTTTTTTTTTTTTTTTTTTTTT INT_SCREEN  TELAPSE        0.18 TCPU        0.18

 DFT PARAMETERS

     ATOM       ELECTRONS   NET CHARGE   R(ANGSTROM)
   1  14  SI     14.0000      0.0000     1.17000000

 SIZE OF GRID=       1583
 TTTTTTTTTTTTTTTTTTTTTTTTTTTTTT MAKE_GRID2  TELAPSE        0.22 TCPU        0.22
 BECKE WEIGHT FUNCTION
 RADSAFE =     2.00
 TOLERANCES - DENSITY:10**- 6; POTENTIAL:10**- 9; GRID WGT:10**-14

 RADIAL INTEGRATION  - INTERVALS (POINTS,UPPER LIMIT):            1( 75,  4.0*R)

 ANGULAR INTEGRATION - INTERVALS (ACCURACY LEVEL [N. POINTS] UPPER LIMIT):
  1(  4[  86]   0.2)  2(  8[ 194]   0.5)  3( 12[ 350]   0.9)  4( 16[ 974]   3.5)
  5( 12[ 350]9999.0)
 TTTTTTTTTTTTTTTTTTTTTTTTTTTTTT INT_CALC    TELAPSE        0.23 TCPU        0.23
 EEEEEEEEEE INT_CALC TERMINATION  DATE 25 01 2026 TIME 22:40:42.6

 *******************************************************************************
 Si                                                                              
 CRYSTAL - SCF - TYPE OF CALCULATION :  RESTRICTED CLOSED SHELL
 *******************************************************************************

 CAPPA:IS1  8;IS2  8;IS3  8; K PTS MONK NET  29; SYMMOPS:K SPACE  48;G SPACE  48

 TTTTTTTTTTTTTTTTTTTTTTTTTTTTTT SDIK        TELAPSE        0.24 TCPU        0.24

 AAAAAAAAAAAAAAAAAAAAAAAAAAAAAAAAAAAAAAAAAAAAAAAAAAAAAAAAAAAAAAAAAAAAAAAAAAAAAAA
         ATOMIC WAVEFUNCTION(S)


 NUCLEAR CHARGE 14.0  SYMMETRY SPECIES            S    P
 N. ELECTRONS   14.0  NUMBER OF PRIMITIVE GTOS   14    8
                      NUMBER OF CONTRACTED GTOS   5    4
                      NUMBER OF CLOSED SHELLS     3    1
                      OPEN SHELL OCCUPATION       0    2

  ZNUC  SCFIT    TOTAL HF ENERGY   KINETIC ENERGY   VIRIAL THEOREM             ACCURACY
  14.0    11    -2.888169601E+02  2.894455562E+02 -1.997828275E+00  2.0E-06

 AAAAAAAAAAAAAAAAAAAAAAAAAAAAAAAAAAAAAAAAAAAAAAAAAAAAAAAAAAAAAAAAAAAAAAAAAAAAAAA

 CHARGE NORMALIZATION FACTOR   1.00000000
 TOTAL ATOMIC CHARGES:
  14.0000000  14.0000000
 TTTTTTTTTTTTTTTTTTTTTTTTTTTTTT MOQGAD      TELAPSE        0.26 TCPU        0.26
 TTTTTTTTTTTTTTTTTTTTTTTTTTTTTT SHELLXN     TELAPSE       22.55 TCPU       22.55
 TTTTTTTTTTTTTTTTTTTTTTTTTTTTTT MONMO3      TELAPSE       22.56 TCPU       22.56
 NUMERICALLY INTEGRATED DENSITY     28.0002404354
 TTTTTTTTTTTTTTTTTTTTTTTTTTTTTT NUMDFT      TELAPSE       22.78 TCPU       22.78
 CYC   0 ETOT(AU) -5.791722840936E+02 DETOT -5.79E+02 tst  0.00E+00 PX  1.00E+00
 TTTTTTTTTTTTTTTTTTTTTTTTTTTTTT DIIS        TELAPSE       22.79 TCPU       22.79
 TTTTTTTTTTTTTTTTTTTTTTTTTTTTTT FDIK        TELAPSE       22.86 TCPU       22.86
 INSULATING STATE
 TOP OF VALENCE BANDS -    BAND     14; K    1; EIG -1.8518655E-01 AU
 BOTTOM OF VIRTUAL BANDS - BAND     15; K   18; EIG -1.4953548E-01 AU
 INDIRECT ENERGY BAND GAP:   0.9701 eV
 BOTTOM OF VIRTUAL BANDS - BAND     15; K    1; EIG -7.8857946E-02 AU
 TTTTTTTTTTTTTTTTTTTTTTTTTTTTTT FERM        TELAPSE       22.86 TCPU       22.86
 TTTTTTTTTTTTTTTTTTTTTTTTTTTTTT PDIG        TELAPSE       22.92 TCPU       22.92
 CHARGE NORMALIZATION FACTOR   1.00000000
 TOTAL ATOMIC CHARGES:
  14.0000000  14.0000000
 TTTTTTTTTTTTTTTTTTTTTTTTTTTTTT MOQGAD      TELAPSE       22.94 TCPU       22.94
 TTTTTTTTTTTTTTTTTTTTTTTTTTTTTT SHELLXN     TELAPSE       45.64 TCPU       45.64
 TTTTTTTTTTTTTTTTTTTTTTTTTTTTTT MONMO3      TELAPSE       45.65 TCPU       45.65
 NUMERICALLY INTEGRATED DENSITY     28.0001963325
 TTTTTTTTTTTTTTTTTTTTTTTTTTTTTT NUMDFT      TELAPSE       45.87 TCPU       45.87
 CYC   1 ETOT(AU) -5.787667007481E+02 DETOT  4.06E-01 tst  0.00E+00 PX  1.00E+00
 TTTTTTTTTTTTTTTTTTTTTTTTTTTTTT DIIS        TELAPSE       45.88 TCPU       45.88
 DIIS TEST: 0.22856E-02 AT SCF   CYCLE   1 - MIX   30 %
 TTTTTTTTTTTTTTTTTTTTTTTTTTTTTT FDIK        TELAPSE       46.28 TCPU       46.28
 INSULATING STATE
 TOP OF VALENCE BANDS -    BAND     14; K    1; EIG -1.7644196E-01 AU
 BOTTOM OF VIRTUAL BANDS - BAND     15; K   18; EIG -1.3613797E-01 AU
 INDIRECT ENERGY BAND GAP:   1.0967 eV
 BOTTOM OF VIRTUAL BANDS - BAND     15; K    1; EIG -6.4604964E-02 AU
 TTTTTTTTTTTTTTTTTTTTTTTTTTTTTT FERM        TELAPSE       46.28 TCPU       46.28
 TTTTTTTTTTTTTTTTTTTTTTTTTTTTTT PDIG        TELAPSE       46.39 TCPU       46.39
 CHARGE NORMALIZATION FACTOR   1.00000000
 TOTAL ATOMIC CHARGES:
  14.0000000  14.0000000
 TTTTTTTTTTTTTTTTTTTTTTTTTTTTTT MOQGAD      TELAPSE       46.42 TCPU       46.42
 TTTTTTTTTTTTTTTTTTTTTTTTTTTTTT SHELLXN     TELAPSE       67.54 TCPU       67.53
 TTTTTTTTTTTTTTTTTTTTTTTTTTTTTT MONMO3      TELAPSE       67.55 TCPU       67.55
 NUMERICALLY INTEGRATED DENSITY     28.0001994276
 TTTTTTTTTTTTTTTTTTTTTTTTTTTTTT NUMDFT      TELAPSE       67.79 TCPU       67.79
 CYC   2 ETOT(AU) -5.787670237321E+02 DETOT -3.23E-04 tst  4.48E-05 PX  2.35E-02
 TTTTTTTTTTTTTTTTTTTTTTTTTTTTTT DIIS        TELAPSE       67.81 TCPU       67.80
 DIIS TEST: 0.21085E-04 AT SCF   CYCLE   2 - DIIS ACTIVE - HISTORY:     2 CYCLES
 TTTTTTTTTTTTTTTTTTTTTTTTTTTTTT FDIK        TELAPSE       68.00 TCPU       68.00
 INSULATING STATE
 TOP OF VALENCE BANDS -    BAND     14; K    1; EIG -1.7664335E-01 AU
 BOTTOM OF VIRTUAL BANDS - BAND     15; K   18; EIG -1.3370517E-01 AU
 INDIRECT ENERGY BAND GAP:   1.1684 eV
 BOTTOM OF VIRTUAL BANDS - BAND     15; K    1; EIG -6.1957302E-02 AU
 TTTTTTTTTTTTTTTTTTTTTTTTTTTTTT FERM        TELAPSE       68.00 TCPU       68.00
 TTTTTTTTTTTTTTTTTTTTTTTTTTTTTT PDIG        TELAPSE       68.06 TCPU       68.06
 CHARGE NORMALIZATION FACTOR   1.00000000
 TOTAL ATOMIC CHARGES:
  14.0000000  14.0000000
 TTTTTTTTTTTTTTTTTTTTTTTTTTTTTT MOQGAD      TELAPSE       68.08 TCPU       68.08
 TTTTTTTTTTTTTTTTTTTTTTTTTTTTTT SHELLXN     TELAPSE       88.37 TCPU       88.37
 TTTTTTTTTTTTTTTTTTTTTTTTTTTTTT MONMO3      TELAPSE       88.38 TCPU       88.37
 NUMERICALLY INTEGRATED DENSITY     28.0002002968
 TTTTTTTTTTTTTTTTTTTTTTTTTTTTTT NUMDFT      TELAPSE       88.61 TCPU       88.61
 CYC   3 ETOT(AU) -5.787670420612E+02 DETOT -1.83E-05 tst  9.64E-06 PX  1.15E-02
 TTTTTTTTTTTTTTTTTTTTTTTTTTTTTT DIIS        TELAPSE       88.63 TCPU       88.63
 DIIS TEST: 0.20880E-05 AT SCF   CYCLE   3 - DIIS ACTIVE - HISTORY:     3 CYCLES
 TTTTTTTTTTTTTTTTTTTTTTTTTTTTTT FDIK        TELAPSE       88.72 TCPU       88.72
 INSULATING STATE
 TOP OF VALENCE BANDS -    BAND     14; K    1; EIG -1.7769494E-01 AU
 BOTTOM OF VIRTUAL BANDS - BAND     15; K   18; EIG -1.3456727E-01 AU
 INDIRECT ENERGY BAND GAP:   1.1736 eV
 BOTTOM OF VIRTUAL BANDS - BAND     15; K    1; EIG -6.2860213E-02 AU
 TTTTTTTTTTTTTTTTTTTTTTTTTTTTTT FERM        TELAPSE       88.72 TCPU       88.72
 TTTTTTTTTTTTTTTTTTTTTTTTTTTTTT PDIG        TELAPSE       88.78 TCPU       88.78
 CHARGE NORMALIZATION FACTOR   1.00000000
 TOTAL ATOMIC CHARGES:
  14.0000000  14.0000000
 TTTTTTTTTTTTTTTTTTTTTTTTTTTTTT MOQGAD      TELAPSE       88.80 TCPU       88.80
 TTTTTTTTTTTTTTTTTTTTTTTTTTTTTT SHELLXN     TELAPSE      111.08 TCPU      111.08
 TTTTTTTTTTTTTTTTTTTTTTTTTTTTTT MONMO3      TELAPSE      111.10 TCPU      111.10
 NUMERICALLY INTEGRATED DENSITY     28.0002001587
 TTTTTTTTTTTTTTTTTTTTTTTTTTTTTT NUMDFT      TELAPSE      111.36 TCPU      111.36
 CYC   4 ETOT(AU) -5.787670423364E+02 DETOT -2.75E-07 tst  3.10E-08 PX  7.46E-04
 TTTTTTTTTTTTTTTTTTTTTTTTTTTTTT DIIS        TELAPSE      111.37 TCPU      111.37
 DIIS TEST: 0.76133E-07 AT SCF   CYCLE   4 - DIIS ACTIVE - HISTORY:     4 CYCLES
 TTTTTTTTTTTTTTTTTTTTTTTTTTTTTT FDIK        TELAPSE      111.47 TCPU      111.47
 INSULATING STATE
 TOP OF VALENCE BANDS -    BAND     14; K    1; EIG -1.7758493E-01 AU
 BOTTOM OF VIRTUAL BANDS - BAND     15; K   18; EIG -1.3448353E-01 AU
 INDIRECT ENERGY BAND GAP:   1.1728 eV
 BOTTOM OF VIRTUAL BANDS - BAND     15; K    1; EIG -6.2764616E-02 AU
 TTTTTTTTTTTTTTTTTTTTTTTTTTTTTT FERM        TELAPSE      111.47 TCPU      111.47
 TTTTTTTTTTTTTTTTTTTTTTTTTTTTTT PDIG        TELAPSE      111.53 TCPU      111.53
 CHARGE NORMALIZATION FACTOR   1.00000000
 TOTAL ATOMIC CHARGES:
  14.0000000  14.0000000
 TTTTTTTTTTTTTTTTTTTTTTTTTTTTTT MOQGAD      TELAPSE      111.54 TCPU      111.54
 TTTTTTTTTTTTTTTTTTTTTTTTTTTTTT SHELLXN     TELAPSE      134.59 TCPU      134.59
 +++ ENERGIES IN A.U. +++
 ::: EXT EL-POLE                                  -6.9997176625390E+02
 ::: EXT EL-SPHEROPOLE                             6.2389117616907E+00
 ::: BIELET ZONE E-E                               8.6416674545618E+02
 ::: TOTAL E-E                                     1.7043389096398E+02
 ::: TOTAL E-N + N-E                              -1.1863047086076E+03
 ::: TOTAL N-N                                    -1.0308337123869E+02
 ::: KINETIC ENERGY                                5.7841760481888E+02
 ::: PSEUDO TOTAL   ENERGY                        -5.4053658406344E+02
 ::: VIRIAL COEFFICIENT                            1.0338539514234E+00
 TTTTTTTTTTTTTTTTTTTTTTTTTTTTTT MONMO3      TELAPSE      134.60 TCPU      134.60
 NUMERICALLY INTEGRATED DENSITY     28.0002001927
 EXCHANGE ENERGY: -0.371348261980E+02  CORRELATION ENERGY: -0.109563207480E+01
 TTTTTTTTTTTTTTTTTTTTTTTTTTTTTT NUMDFT      TELAPSE      134.79 TCPU      134.79
 CYC   5 ETOT(AU) -5.787670423362E+02 DETOT  2.02E-10 tst  1.15E-09 PX  7.46E-04

 == SCF ENDED - CONVERGENCE ON ENERGY      E(AU) -5.7876704233621E+02 CYCLES   5


 ENERGY EXPRESSION=HARTREE+FOCK EXCH*0.08400+(PBE        EXCH)*0.91600+PBE        CORR


 TOTAL ENERGY(DFT)(AU)(  5) -5.7876704233621E+02 DE 2.0E-10 tester 1.2E-09
 TTTTTTTTTTTTTTTTTTTTTTTTTTTTTT EDFT        TELAPSE      134.79 TCPU      134.79
 EIGENVECTORS IN FORTRAN UNIT 10
 TTTTTTTTTTTTTTTTTTTTTTTTTTTTTT END         TELAPSE      134.80 TCPU      134.80
 EEEEEEEEEE TERMINATION  DATE 25 01 2026 TIME 22:42:57.2
