 *******************************************************************************
 *                                                                             *
 *                                  CRYSTAL26                                  *
 *                      develop : 0.0.1 - November 2024                        *
 *                        HTTP://WWW.CRYSTAL.UNITO.IT                          *
 *                                                                             *
 *                                MAIN AUTHORS                                 *
 *                                                                             *
 *  R. DOVESI(1,11), V.R. SAUNDERS(2), C. ROETTI(1,11), R. ORLANDO(1,11),      *
 *  C.M. ZICOVICH-WILSON(1,3), F. PASCALE(4), B. CIVALLERI(1,11),              *
 *  K. DOLL(5), N.M. HARRISON(6), I.J. BUSH(7), Ph. D'ARCO(8),                 *
 *  M. LLUNELL(9), M. CAUSA'(10), Y. NOEL(8), L. MASCHIO(1,11), A. ERBA(1,11)  *
 *  M. RE'RAT(14), S. CASASSA(1,11), B.G. SEARLE(2), J.K. DESMARAIS(1)         *
 *                                                                             *
 *        CONTRIBUTIONS TO THE CODE HAVE ALSO BEEN GIVEN BY                    *
 *                                                                             *
 *  M. FERRABONE(1,11), M. DE LA PIERRE(1,11), M. FERRERO(1,11),               *
 *  J. BAIMA(1,11), E. ALBANESE(1,11), M.F. PEINTINGER(12), R. BAST(13),       *
 *  B. KIRTMAN(15), V. LACIVITA(1,11), R. DEMICHELIS(1,16)                     *
 *  G. BRANDEBURG(17), S. SALUSTRO(1,11), G. SANSONE(1,11)                     *
 *  M.T. RUGGIERO(18), L.E. DAGA(1), L. DONA'(1), A. COSSARD(1)                *
 *                                                                             *
 * (1) THEORETICAL CHEMISTRY GROUP - UNIVERSITA' DI TORINO - TORINO (ITALY)    *
 * (2) SCIENTIFIC COMPUTING DEPARTMENT - STFC DARESBURY (UK)                   *
 * (3) UNIVERSIDAD AUTONOMA DEL ESTADO DE MORELOS - CUERNAVACA (MEXICO)        *
 * (4) UNIVERSITE' DE LORRAINE - NANCY (FRANCE)                                *
 * (5) UNIVERSITAET STUTTGART- STUTTGART (GERMANY)                             *
 * (6) IMPERIAL COLLEGE - LONDON (UK)                                          *
 * (7) SCIENTIFIC COMPUTING DEPARTMENT - STFC RAL (UK)                         *
 * (8) UPMC - SORBONNE UNIVERSITES - PARIS (FRANCE)                            *
 * (9) UNIVERSIDAD DE BARCELONA - BARCELONA (SPAIN)                            *
 *(10) UNIVERSITA' DI NAPOLI "FEDERICO II" - NAPOLI (ITALY)                    *
 *(11) NIS - NANOSTRUCTURED INTERFACES AND SURFACES - TORINO (ITALY)           *
 *(12) MPI FUER CHEMISCHE ENERGIEKONVERSION - MUELHEIM AN DER RUHR (GERMANY)   *
 *(13) UNIVERSITY OF TROMSO - TROMSO (NORWAY)                                  *
 *(14) UNIVERSITE' DE PAU ET DES PAYS DE L'ADOUR - PAU (FRANCE)                *
 *(15) UNIVERSITY OF CALIFORNIA SANTA BARBARA - SANTA BARBARA (USA)            *
 *(16) CURTIN UNIVERSITY - PERTH (AUSTRALIA)                                   *
 *(17) UNIVERSITY COLLEGE LONDON - LONDON (UK)                                 *
 *(18) UNIVERSITY OF VERMONT - BURLINGTON (USA)                                *
 *                                                                             *
 *******************************************************************************
 EEEEEEEEEE STARTING  DATE 23 01 2026 TIME 10:06:54.4
 BENZENE                                                                         

 MOLECULAR CALCULATION
 POINT  GROUP  N. 40                  :  6/MMM  OR  D6H  
 CORRESPONDING SPACE GROUP            :  P 6/M M M       


 NUMBER OF IRREDUCIBLE ATOMS IN THE CONVENTIONAL CELL:    2

 INPUT COORDINATES

 ATOM AT. N.              COORDINATES
   1   6     0.000000000000E+00  1.396000000000E+00  0.000000000000E+00
   2   1     0.000000000000E+00  2.479000000000E+00  0.000000000000E+00

 COORDINATES OF THE EQUIVALENT ATOMS (ANGSTROMS)

 N. ATOM EQUIV AT. N.          X                  Y                  Z

   1   1   1    6 C     0.00000000000E+00  1.39600000000E+00  0.00000000000E+00
   2   1   2    6 C     0.00000000000E+00 -1.39600000000E+00  0.00000000000E+00
   3   1   3    6 C    -1.20897146368E+00 -6.98000000000E-01  0.00000000000E+00
   4   1   4    6 C     1.20897146368E+00 -6.98000000000E-01  0.00000000000E+00
   5   1   5    6 C    -1.20897146368E+00  6.98000000000E-01  0.00000000000E+00
   6   1   6    6 C     1.20897146368E+00  6.98000000000E-01  0.00000000000E+00

   7   2   1    1 H     0.00000000000E+00  2.47900000000E+00  0.00000000000E+00
   8   2   2    1 H     0.00000000000E+00 -2.47900000000E+00  0.00000000000E+00
   9   2   3    1 H    -2.14687697598E+00 -1.23950000000E+00  0.00000000000E+00
  10   2   4    1 H     2.14687697598E+00 -1.23950000000E+00  0.00000000000E+00
  11   2   5    1 H    -2.14687697598E+00  1.23950000000E+00  0.00000000000E+00
  12   2   6    1 H     2.14687697598E+00  1.23950000000E+00  0.00000000000E+00

 NUMBER OF SYMMETRY OPERATORS         :   24
 *******************************************************************************
 * GEOMETRY EDITING - INPUT COORDINATES ARE GIVEN IN ANGSTROM         
 *******************************************************************************

 GEOMETRY NOW FULLY CONSISTENT WITH THE GROUP

 GEOMETRY FOR WAVE FUNCTION - DIMENSIONALITY OF THE SYSTEM    0
 (NON PERIODIC DIRECTION: LATTICE PARAMETER FORMALLY SET TO 500)
 *******************************************************************************
 ATOMS IN THE ASYMMETRIC UNIT    2 - ATOMS IN THE UNIT CELL:   12
     ATOM             X(ANGSTROM)         Y(ANGSTROM)         Z(ANGSTROM)
 *******************************************************************************
      1 T   6 C     0.000000000000E+00  1.396000000000E+00  0.000000000000E+00
      2 F   6 C     0.000000000000E+00 -1.396000000000E+00  0.000000000000E+00
      3 F   6 C    -1.208971463683E+00 -6.980000000000E-01  0.000000000000E+00
      4 F   6 C     1.208971463683E+00 -6.980000000000E-01  0.000000000000E+00
      5 F   6 C    -1.208971463683E+00  6.980000000000E-01  0.000000000000E+00
      6 F   6 C     1.208971463683E+00  6.980000000000E-01  0.000000000000E+00
      7 T   1 H     0.000000000000E+00  2.479000000000E+00  0.000000000000E+00
      8 F   1 H     0.000000000000E+00 -2.479000000000E+00  0.000000000000E+00
      9 F   1 H    -2.146876975982E+00 -1.239500000000E+00  0.000000000000E+00
     10 F   1 H     2.146876975982E+00 -1.239500000000E+00  0.000000000000E+00
     11 F   1 H    -2.146876975982E+00  1.239500000000E+00  0.000000000000E+00
     12 F   1 H     2.146876975982E+00  1.239500000000E+00  0.000000000000E+00

 T = ATOM BELONGING TO THE ASYMMETRIC UNIT

 ****   24 SYMMOPS - TRANSLATORS IN FRACTIONAL UNITS
 **** MATRICES AND TRANSLATORS IN THE CRYSTALLOGRAPHIC REFERENCE FRAME
   V INV                    ROTATION MATRICES                   TRANSLATORS
   1   1  1.00  0.00  0.00  0.00  1.00  0.00  0.00  0.00  1.00  0.00  0.00  0.00
   2   2 -1.00  0.00  0.00  0.00 -1.00  0.00  0.00  0.00  1.00  0.00  0.00  0.00
   3   4 -0.50 -0.87  0.00  0.87 -0.50  0.00  0.00  0.00  1.00  0.00  0.00  0.00
   4   3 -0.50  0.87  0.00 -0.87 -0.50  0.00  0.00  0.00  1.00  0.00  0.00  0.00
   5   6  0.50 -0.87  0.00  0.87  0.50  0.00  0.00  0.00  1.00  0.00  0.00  0.00
   6   5  0.50  0.87  0.00 -0.87  0.50  0.00  0.00  0.00  1.00  0.00  0.00  0.00
   7   7  0.50 -0.87  0.00 -0.87 -0.50  0.00  0.00  0.00 -1.00  0.00  0.00  0.00
   8   8 -1.00  0.00  0.00  0.00  1.00  0.00  0.00  0.00 -1.00  0.00  0.00  0.00
   9   9  0.50  0.87  0.00  0.87 -0.50  0.00  0.00  0.00 -1.00  0.00  0.00  0.00
  10  10 -0.50 -0.87  0.00 -0.87  0.50  0.00  0.00  0.00 -1.00  0.00  0.00  0.00
  11  11  1.00  0.00  0.00  0.00 -1.00  0.00  0.00  0.00 -1.00  0.00  0.00  0.00
  12  12 -0.50  0.87  0.00  0.87  0.50  0.00  0.00  0.00 -1.00  0.00  0.00  0.00
  13  13 -1.00  0.00  0.00  0.00 -1.00  0.00  0.00  0.00 -1.00  0.00  0.00  0.00
  14  14  1.00  0.00  0.00  0.00  1.00  0.00  0.00  0.00 -1.00  0.00  0.00  0.00
  15  16  0.50  0.87  0.00 -0.87  0.50  0.00  0.00  0.00 -1.00  0.00  0.00  0.00
  16  15  0.50 -0.87  0.00  0.87  0.50  0.00  0.00  0.00 -1.00  0.00  0.00  0.00
  17  18 -0.50  0.87  0.00 -0.87 -0.50  0.00  0.00  0.00 -1.00  0.00  0.00  0.00
  18  17 -0.50 -0.87  0.00  0.87 -0.50  0.00  0.00  0.00 -1.00  0.00  0.00  0.00
  19  19 -0.50  0.87  0.00  0.87  0.50  0.00  0.00  0.00  1.00  0.00  0.00  0.00
  20  20  1.00  0.00  0.00  0.00 -1.00  0.00  0.00  0.00  1.00  0.00  0.00  0.00
  21  21 -0.50 -0.87  0.00 -0.87  0.50  0.00  0.00  0.00  1.00  0.00  0.00  0.00
  22  22  0.50  0.87  0.00  0.87 -0.50  0.00  0.00  0.00  1.00  0.00  0.00  0.00
  23  23 -1.00  0.00  0.00  0.00  1.00  0.00  0.00  0.00  1.00  0.00  0.00  0.00
  24  24  0.50 -0.87  0.00 -0.87 -0.50  0.00  0.00  0.00  1.00  0.00  0.00  0.00
 WARNING **** CRYSTA **** TESTGEOM  DIRECTIVE - GEOMETRY EDITING COMPLETE
 TTTTTTTTTTTTTTTTTTTTTTTTTTTTTT END         TELAPSE        0.11 TCPU        0.11
 EEEEEEEEEE TERMINATION  DATE 23 01 2026 TIME 10:06:54.5
