 *******************************************************************************
 *                                                                             *
 *                                  CRYSTAL26                                  *
 *                      develop : 0.0.1 - November 2024                        *
 *                        HTTP://WWW.CRYSTAL.UNITO.IT                          *
 *                                                                             *
 *                                MAIN AUTHORS                                 *
 *                                                                             *
 *  R. DOVESI(1,11), V.R. SAUNDERS(2), C. ROETTI(1,11), R. ORLANDO(1,11),      *
 *  C.M. ZICOVICH-WILSON(1,3), F. PASCALE(4), B. CIVALLERI(1,11),              *
 *  K. DOLL(5), N.M. HARRISON(6), I.J. BUSH(7), Ph. D'ARCO(8),                 *
 *  M. LLUNELL(9), M. CAUSA'(10), Y. NOEL(8), L. MASCHIO(1,11), A. ERBA(1,11)  *
 *  M. RE'RAT(14), S. CASASSA(1,11), B.G. SEARLE(2), J.K. DESMARAIS(1)         *
 *                                                                             *
 *        CONTRIBUTIONS TO THE CODE HAVE ALSO BEEN GIVEN BY                    *
 *                                                                             *
 *  M. FERRABONE(1,11), M. DE LA PIERRE(1,11), M. FERRERO(1,11),               *
 *  J. BAIMA(1,11), E. ALBANESE(1,11), M.F. PEINTINGER(12), R. BAST(13),       *
 *  B. KIRTMAN(15), V. LACIVITA(1,11), R. DEMICHELIS(1,16)                     *
 *  G. BRANDEBURG(17), S. SALUSTRO(1,11), G. SANSONE(1,11)                     *
 *  M.T. RUGGIERO(18), L.E. DAGA(1), L. DONA'(1), A. COSSARD(1)                *
 *                                                                             *
 * (1) THEORETICAL CHEMISTRY GROUP - UNIVERSITA' DI TORINO - TORINO (ITALY)    *
 * (2) SCIENTIFIC COMPUTING DEPARTMENT - STFC DARESBURY (UK)                   *
 * (3) UNIVERSIDAD AUTONOMA DEL ESTADO DE MORELOS - CUERNAVACA (MEXICO)        *
 * (4) UNIVERSITE' DE LORRAINE - NANCY (FRANCE)                                *
 * (5) UNIVERSITAET STUTTGART- STUTTGART (GERMANY)                             *
 * (6) IMPERIAL COLLEGE - LONDON (UK)                                          *
 * (7) SCIENTIFIC COMPUTING DEPARTMENT - STFC RAL (UK)                         *
 * (8) UPMC - SORBONNE UNIVERSITES - PARIS (FRANCE)                            *
 * (9) UNIVERSIDAD DE BARCELONA - BARCELONA (SPAIN)                            *
 *(10) UNIVERSITA' DI NAPOLI "FEDERICO II" - NAPOLI (ITALY)                    *
 *(11) NIS - NANOSTRUCTURED INTERFACES AND SURFACES - TORINO (ITALY)           *
 *(12) MPI FUER CHEMISCHE ENERGIEKONVERSION - MUELHEIM AN DER RUHR (GERMANY)   *
 *(13) UNIVERSITY OF TROMSO - TROMSO (NORWAY)                                  *
 *(14) UNIVERSITE' DE PAU ET DES PAYS DE L'ADOUR - PAU (FRANCE)                *
 *(15) UNIVERSITY OF CALIFORNIA SANTA BARBARA - SANTA BARBARA (USA)            *
 *(16) CURTIN UNIVERSITY - PERTH (AUSTRALIA)                                   *
 *(17) UNIVERSITY COLLEGE LONDON - LONDON (UK)                                 *
 *(18) UNIVERSITY OF VERMONT - BURLINGTON (USA)                                *
 *                                                                             *
 *******************************************************************************
 EEEEEEEEEE STARTING  DATE 23 01 2026 TIME 10:07:39.5
 H2O CHAIN                                                                       

 POLYMER CALCULATION
 POLYMER GROUP N.  1                  :  P 1             
 CORRESPONDING SPACE GROUP            :  P 1             
 (THE SPACE GROUP SYMBOL AND EQUIVALENT POSITIONS REFER TO A Z-ORIENTED POLYMER)

 LATTICE PARAMETER (ANGSTROMS) - CONVENTIONAL CELL        4.96563


 NUMBER OF IRREDUCIBLE ATOMS IN THE CONVENTIONAL CELL:    6

 INPUT COORDINATES

 ATOM AT. N.              COORDINATES
   1   8     4.436600000000E-03  5.846200000000E-01  1.684400000000E-01
   2   8    -4.955600000000E-01 -5.846100000000E-01 -1.684450000000E-01
   3   1     1.463300000000E-02  1.330900000000E+00 -4.522310000000E-01
   4   1    -4.853700000000E-01 -1.330900000000E+00  4.522180000000E-01
   5   1     1.834100000000E-01  1.375700000000E-01  5.884890000000E-02
   6   1    -3.165900000000E-01 -1.375500000000E-01 -5.885900000000E-02

 *******************************************************************************

 << INFORMATION >>: FROM NOW ON, ALL COORDINATES REFER TO THE PRIMITIVE CELL

 *******************************************************************************

 LATTICE PARAMETERS  (ANGSTROMS AND DEGREES) - PRIMITIVE CELL
       A          B          C        ALPHA      BETA     GAMMA        VOLUME
    4.96563  500.00000  500.00000    90.00000  90.00000  90.00000      4.965635

 COORDINATES OF THE EQUIVALENT ATOMS (ANGSTROMS)

 N. ATOM EQUIV AT. N.          X                  Y                  Z

   1   1   1    8 O     2.20305362410E-02  5.84620000000E-01  1.68440000000E-01

   2   2   1    8 O    -2.46077008060E+00 -5.84610000000E-01 -1.68445000000E-01

   3   3   1    1 H     7.26621369550E-02  1.33090000000E+00 -4.52231000000E-01

   4   4   1    1 H    -2.41017025995E+00 -1.33090000000E+00  4.52218000000E-01

   5   5   1    1 H     9.10747115350E-01  1.37570000000E-01  5.88489000000E-02

   6   6   1    1 H    -1.57207038465E+00 -1.37550000000E-01 -5.88590000000E-02

 NUMBER OF SYMMETRY OPERATORS         :    1
 *******************************************************************************
 * GEOMETRY EDITING - INPUT COORDINATES ARE GIVEN IN ANGSTROM         
 *******************************************************************************

 GCALCO - MAX INDICES DIRECT LATTICE VECTOR 13998     0     0
 NO.OF VECTORS CREATED 6999 STARS 3500 RMAX 32833.53212 BOHR

 GEOMETRY FOR WAVE FUNCTION - DIMENSIONALITY OF THE SYSTEM    1
 (NON PERIODIC DIRECTION: LATTICE PARAMETER FORMALLY SET TO 500)
 *******************************************************************************
 LATTICE PARAMETERS (ANGSTROMS AND DEGREES) - BOHR = 0.5291772083 ANGSTROM
 PRIMITIVE CELL
         A              B              C           ALPHA      BETA       GAMMA 
     4.96563500   500.00000000   500.00000000    90.000000  90.000000  90.000000
 *******************************************************************************
 ATOMS IN THE ASYMMETRIC UNIT    6 - ATOMS IN THE UNIT CELL:    6
     ATOM                 X/A             Y(ANGSTROM)         Z(ANGSTROM)
 *******************************************************************************
      1 T   8 O     4.436600000000E-03  5.846200000000E-01  1.684400000000E-01
      2 T   8 O    -4.955600000000E-01 -5.846100000000E-01 -1.684450000000E-01
      3 T   1 H     1.463300000000E-02  1.330900000000E+00 -4.522310000000E-01
      4 T   1 H    -4.853700000000E-01 -1.330900000000E+00  4.522180000000E-01
      5 T   1 H     1.834100000000E-01  1.375700000000E-01  5.884890000000E-02
      6 T   1 H    -3.165900000000E-01 -1.375500000000E-01 -5.885900000000E-02

 T = ATOM BELONGING TO THE ASYMMETRIC UNIT

 ****    1 SYMMOPS - TRANSLATORS IN FRACTIONAL UNITS
 **** MATRICES AND TRANSLATORS IN THE CRYSTALLOGRAPHIC REFERENCE FRAME
   V INV                    ROTATION MATRICES                   TRANSLATORS
   1   1  1.00  0.00  0.00  0.00  1.00  0.00  0.00  0.00  1.00  0.00  0.00  0.00

 DIRECT LATTICE VECTORS CARTESIAN COMPONENTS (ANGSTROM)
          X                    Y                    Z
   0.496563500000E+01   0.000000000000E+00   0.000000000000E+00
   0.000000000000E+00   0.500000000000E+03   0.000000000000E+00
   0.000000000000E+00   0.000000000000E+00   0.500000000000E+03


 CARTESIAN COORDINATES - PRIMITIVE CELL
 *******************************************************************************
 *      ATOM          X(ANGSTROM)         Y(ANGSTROM)         Z(ANGSTROM)
 *******************************************************************************
    1     8 O     2.203053624100E-02  5.846200000000E-01  1.684400000000E-01
    2     8 O    -2.460770080600E+00 -5.846100000000E-01 -1.684450000000E-01
    3     1 H     7.266213695500E-02  1.330900000000E+00 -4.522310000000E-01
    4     1 H    -2.410170259950E+00 -1.330900000000E+00  4.522180000000E-01
    5     1 H     9.107471153500E-01  1.375700000000E-01  5.884890000000E-02
    6     1 H    -1.572070384650E+00 -1.375500000000E-01 -5.885900000000E-02
 WARNING **** CRYSTA **** TESTGEOM  DIRECTIVE - GEOMETRY EDITING COMPLETE
 TTTTTTTTTTTTTTTTTTTTTTTTTTTTTT END         TELAPSE        0.11 TCPU        0.11
 EEEEEEEEEE TERMINATION  DATE 23 01 2026 TIME 10:07:39.6
